c752d6a39f8d87a387f028b663da17c0dffac79c