d5501855c041b0fe738032ca734b5c5a3892cfc5